
 Primary working directories    : /tmp/ewachmann
 Secondary working directories  : /tmp/ewachmann
 Wavefunction directory         : /home/ewachmann/wfu/
 Main file repository           : /tmp/ewachmann/

 SHA1      : 960ce83de8be0427555cf121dea4debc26c720b5
 NAME      : 2012.1.960ce83
 ARCHNAME  : Linux/x86_64
 FC        : /opt/intel/composer_xe_2013_sp1.2.144/bin/intel64/ifort
 FCVERSION : 14.0.2
 BLASLIB   : -Wl,-_start-group /opt/intel/mkl/lib/intel64/libmkl_intel_ilp64.a /opt/intel/mkl/lib/intel64/libmkl_sequential.a /opt/intel/mkl/lib/intel64/libmkl_core.a -Wl,-_end-group
 id        : tugraziep

 Nodes     nprocs
 qciep        2
 ga_uses_ma=false, calling ma_init with nominal heap.
 GA-space will be limited to   8.0 MW (determined by -G option)

 Using customized tuning parameters: mindgm=7; mindgv=24; mindgc=1; mindgr=1; noblas=0; minvec=7
 default implementation of scratch files=sf  

 ***,Benzene HF Calculation
 geometry={
   18
   Benzene geometry
 C         -0.65091        1.49649        0.21943
 C         -1.33133        0.20676       -0.23147
 C         -0.56463       -1.02732        0.23642
 H         -1.40448        0.19689       -1.32599
 H         -2.35527        0.17437        0.15745
 C          0.89742       -0.98027       -0.19937
 H         -1.03980       -1.93031       -0.16308
 H         -0.61676       -1.09562        1.33005
 C          1.57784        0.30946        0.25154
 H          0.95460       -1.05955       -1.29200
 H          1.43297       -1.84325        0.21202
 C          0.81114        1.54354       -0.21636
 H          2.60178        0.34185       -0.13738
 H          1.65098        0.31933        1.34605
 H          0.86327        1.61184       -1.30998
 H          1.28631        2.44653        0.18315
 H         -0.70809        1.57578        1.31206
 H         -1.18646        2.35947       -0.19197
 }
 
 basis=cc-pvdz
 hf

 Variables initialized (778), CPU time= 0.01 sec
 Commands  initialized (547), CPU time= 0.01 sec, 516 directives.
 Default parameters read. Elapsed time= 0.07 sec

 Checking input...
 Passed
1


                                         ***  PROGRAM SYSTEM MOLPRO  ***
                         Copyright, University College Cardiff Consultants Limited, 2008

                                    Version 2012.1 linked Apr  1 2014 15:33:03


 **********************************************************************************************************************************
 LABEL *   Benzene HF Calculation                                                        
 Linux-4.19.0-14-amd64/qciep(x86_64) 64 bit mpp version                                  DATE: 12-Feb-25          TIME: 12:19:24  
 **********************************************************************************************************************************

 SHA1:             960ce83de8be0427555cf121dea4debc26c720b5
 **********************************************************************************************************************************

Geometry recognized as XYZ


 Variable memory set to    8000000 words,  buffer space   230000 words

 SETTING BASIS          =    CC-PVDZ


 Recomputing integrals since basis changed


 Using spherical harmonics

 Library entry C      S cc-pVDZ              selected for orbital group  1
 Library entry C      P cc-pVDZ              selected for orbital group  1
 Library entry C      D cc-pVDZ              selected for orbital group  1
 Library entry H      S cc-pVDZ              selected for orbital group  2
 Library entry H      P cc-pVDZ              selected for orbital group  2

1PROGRAM * SEWARD (Integral evaluation for generally contracted gaussian basis sets)     Author: Roland Lindh, 1990

 Geometry written to block  1 of record 700


 Point group  C1  



 ATOMIC COORDINATES

 NR  ATOM    CHARGE       X              Y              Z

   1  C       6.00   -1.230041636    2.827956258    0.414662605
   2  C       6.00   -2.515849091    0.390719775   -0.437414908
   3  C       6.00   -1.066996066   -1.941353449    0.446769052
   4  H       1.00   -2.654082557    0.372068178   -2.505757953
   5  H       1.00   -4.450815266    0.329511546    0.297537379
   6  C       6.00    1.695878025   -1.852441835   -0.376754699
   7  H       1.00   -1.964937231   -3.647757249   -0.308176538
   8  H       1.00   -1.165507489   -2.070421744    2.513430241
   9  C       6.00    2.981685479    0.584794649    0.475341711
  10  H       1.00    1.803932565   -2.002259323   -2.441526162
  11  H       1.00    2.707920855   -3.483237692    0.400659734
  12  C       6.00    1.532832454    2.916867873   -0.408861146
  13  H       1.00    4.916651654    0.646002878   -0.259610576
  14  H       1.00    3.119900048    0.603446246    2.543665859
  15  H       1.00    1.631343877    3.045936168   -2.475503438
  16  H       1.00    2.430773620    4.623271672    0.346103341
  17  H       1.00   -1.338096176    2.977792643    2.479434068
  18  H       1.00   -2.242084466    4.458752115   -0.362770725

 Bond lengths in Bohr (Angstrom)

  1- 2  2.884347166   1-12  2.884366461   1-17  2.073019035   1-18  2.070779660   2- 3  2.884358141
       ( 1.526330783)       ( 1.526340994)       ( 1.096994427)       ( 1.095809401)       ( 1.526336591)

 2-4  2.073041082  2-5  2.070747549  3-6  2.884366461  3-7  2.070761963  3-8  2.073029569
     ( 1.097006094)     ( 1.095792408)     ( 1.526340994)     ( 1.095800036)     ( 1.097000002)

  6- 9  2.884352749   6-10  2.073017669   6-11  2.070772565   9-12  2.884363934   9-13  2.070747549
       ( 1.526333737)       ( 1.096993704)       ( 1.095805647)       ( 1.526339656)       ( 1.095792408)

  9-14  2.073020967  12-15  2.073010730  12-16  2.070768852
       ( 1.096995450)       ( 1.096990032)       ( 1.095803682)

 Bond angles

  1- 2- 3  111.63604764   1- 2- 4  109.39465855   1- 2- 5  109.67503034   1-12- 9  111.63594909

  1-12-15  109.39472517   1-12-16  109.67417079   2- 1-12  111.63629331   2- 1-17  109.39493535

  2- 1-18  109.67443700   2- 3- 6  111.63611003   2- 3- 7  109.67507986   2- 3- 8  109.39457437

  3- 2- 4  109.39448283   3- 2- 5  109.67464630   3- 6- 9  111.63613402   3- 6-10  109.39495807

  3- 6-11  109.67458900   4- 2- 5  106.95028684   6- 3- 7  109.67439749   6- 3- 8  109.39469995

  6- 9-12  111.63571491   6- 9-13  109.67484919   6- 9-14  109.39480187   7- 3- 8  106.95028906

  9- 6-10  109.39483810   9- 6-11  109.67448191   9-12-15  109.39494417   9-12-16  109.67465499

 10- 6-11  106.95014525  12- 1-17  109.39492772  12- 1-18  109.67436028  12- 9-13  109.67446366

 12- 9-14  109.39458722  13- 9-14  106.95077270  15-12-16  106.95073553  17- 1-18  106.95018835

 NUCLEAR CHARGE:                   48
 NUMBER OF PRIMITIVE AOS:         246
 NUMBER OF SYMMETRY AOS:          240
 NUMBER OF CONTRACTIONS:          144   ( 144A   )
 NUMBER OF CORE ORBITALS:           6   (   6A   )
 NUMBER OF VALENCE ORBITALS:       36   (  36A   )


 NUCLEAR REPULSION ENERGY  256.33426497


 Eigenvalues of metric

         1 0.268E-02 0.268E-02 0.287E-02 0.512E-02 0.512E-02 0.146E-01 0.146E-01 0.149E-01


 Contracted 2-electron integrals neglected if value below      1.0D-11
 AO integral compression algorithm  1   Integral accuracy      1.0D-11

     235.930 MB (compressed) written to integral file ( 50.9%)

     Node minimum: 117.965 MB, node maximum: 117.965 MB


 NUMBER OF SORTED TWO-ELECTRON INTEGRALS:   27253620.     BUFFER LENGTH:  32768
 NUMBER OF SEGMENTS:   4  SEGMENT LENGTH:    7303506      RECORD LENGTH: 524288

 Memory used in sort:       7.86 MW

 SORT1 READ    57900897. AND WROTE    26439636. INTEGRALS IN     78 RECORDS. CPU TIME:     1.58 SEC, REAL TIME:     2.06 SEC
 SORT2 READ    52885774. AND WROTE    54502020. INTEGRALS IN    900 RECORDS. CPU TIME:     0.71 SEC, REAL TIME:     1.02 SEC

 Node minimum:    27248400.  Node maximum:    27253620. integrals

 OPERATOR DM      FOR CENTER  0  COORDINATES:    0.000000    0.000000    0.000000


 **********************************************************************************************************************************
 DATASETS  * FILE   NREC   LENGTH (MB)   RECORD NAMES
              1      18        8.61       500      610      700      900      950      970     1000      129      960     1100   
                                          VAR    BASINP    GEOM    SYMINP    ZMAT    AOBASIS   BASIS     P2S    ABASIS      S 
                                         1400     1410     1200     1210     1080     1600     1650     1700   
                                           T        V       H0       H01     AOSYM     SMH    MOLCAS    OPER   

 PROGRAMS   *        TOTAL       INT
 CPU TIMES  *         7.38      7.25
 REAL TIME  *         8.41 SEC
 DISK USED  *       869.53 MB      
 GA USED    *         0.01 MB       (max)       0.00 MB       (current)
 **********************************************************************************************************************************

1PROGRAM * RHF-SCF (CLOSED SHELL)       Authors: W. Meyer, H.-J. Werner


 NUMBER OF ELECTRONS:      24+   24-    SPACE SYMMETRY=1    SPIN SYMMETRY: Singlet 
 CONVERGENCE THRESHOLDS:    1.00E-05 (Density)    1.00E-07 (Energy)
 MAX. NUMBER OF ITERATIONS:       60
 INTERPOLATION TYPE:            DIIS
 INTERPOLATION STEPS:              2 (START)      1 (STEP)
 LEVEL SHIFTS:                  0.00 (CLOSED)  0.00 (OPEN) 



 Orbital guess generated from atomic densities. Full valence occupancy:   42

 Molecular orbital dump at record        2100.2

 ITERATION    DDIFF          GRAD             ENERGY        2-EL.EN.            DIPOLE MOMENTS         DIIS   ORB.
    1      0.000D+00      0.000D+00      -234.14316143    669.039802   -0.00000    0.00000   -0.00000    0    start
    2      0.000D+00      0.406D-02      -234.21243557    662.504294    0.00000   -0.00000   -0.00000    1    diag
    3      0.845D-02      0.172D-02      -234.22190336    665.802079    0.00000   -0.00000   -0.00000    2    diag
    4      0.312D-02      0.619D-03      -234.22359757    664.885827    0.00000   -0.00000   -0.00000    3    diag
    5      0.115D-02      0.532D-04      -234.22361714    664.872783    0.00000   -0.00000   -0.00000    4    diag
    6      0.170D-03      0.952D-05      -234.22361766    664.873924    0.00000   -0.00000   -0.00000    5    diag
    7      0.336D-04      0.135D-05      -234.22361767    664.873393    0.00000   -0.00000   -0.00000    6    diag
    8      0.479D-05      0.144D-06      -234.22361767    664.873379    0.00000   -0.00000   -0.00000    0    orth

 Final occupancy:  24

 !RHF STATE 1.1 Energy               -234.223617672661
 Nuclear energy                       256.33426497
 One-electron energy                 -822.99457228
 Two-electron energy                  332.43668964
 Virial quotient                       -1.00071192
 !RHF STATE 1.1 Dipole moment           0.00000149    -0.00000184    -0.00000003
 Dipole moment /Debye                   0.00000379    -0.00000468    -0.00000008

 Orbital energies:

         1.1          2.1          3.1          4.1          5.1          6.1          7.1          8.1          9.1         10.1
    -11.216848   -11.216569   -11.216568   -11.215958   -11.215957   -11.215639    -1.114030    -1.001189    -1.001186    -0.826179

        11.1         12.1         13.1         14.1         15.1         16.1         17.1         18.1         19.1         20.1
     -0.826177    -0.745462    -0.645514    -0.605837    -0.595357    -0.595356    -0.520965    -0.520961    -0.513481    -0.479428

        21.1         22.1         23.1         24.1         25.1         26.1
     -0.479427    -0.446972    -0.422769    -0.422767     0.178858     0.197782

 HOMO     24.1    -0.422767 =     -11.5041eV
 LUMO     25.1     0.178858 =       4.8670eV
 LUMO-HOMO         0.601625 =      16.3710eV


 **********************************************************************************************************************************
 DATASETS  * FILE   NREC   LENGTH (MB)   RECORD NAMES
              1      18        8.61       500      610      700      900      950      970     1000      129      960     1100   
                                          VAR    BASINP    GEOM    SYMINP    ZMAT    AOBASIS   BASIS     P2S    ABASIS      S 
                                         1400     1410     1200     1210     1080     1600     1650     1700   
                                           T        V       H0       H01     AOSYM     SMH    MOLCAS    OPER   

              2       4        1.02       700     1000      520     2100   
                                         GEOM     BASIS   MCVARS     RHF  

 PROGRAMS   *        TOTAL        HF       INT
 CPU TIMES  *        11.29      3.91      7.25
 REAL TIME  *        12.58 SEC
 DISK USED  *       891.41 MB      
 SF USED    *         0.08 MB      
 GA USED    *         0.01 MB       (max)       0.00 MB       (current)
 **********************************************************************************************************************************

        HF-SCF  
   -234.22361767
 **********************************************************************************************************************************
 Variable memory released
