
 Primary working directories    : /tmp/ewachmann
 Secondary working directories  : /tmp/ewachmann
 Wavefunction directory         : /home/ewachmann/wfu/
 Main file repository           : /tmp/ewachmann/

 SHA1      : 960ce83de8be0427555cf121dea4debc26c720b5
 NAME      : 2012.1.960ce83
 ARCHNAME  : Linux/x86_64
 FC        : /opt/intel/composer_xe_2013_sp1.2.144/bin/intel64/ifort
 FCVERSION : 14.0.2
 BLASLIB   : -Wl,-_start-group /opt/intel/mkl/lib/intel64/libmkl_intel_ilp64.a /opt/intel/mkl/lib/intel64/libmkl_sequential.a /opt/intel/mkl/lib/intel64/libmkl_core.a -Wl,-_end-group
 id        : tugraziep

 Nodes     nprocs
 qciep        1

 Using customized tuning parameters: mindgm=7; mindgv=24; mindgc=1; mindgr=1; noblas=0; minvec=7
 default implementation of scratch files=df  

 ***,formaldehyde in cc-pvtz basis
 memory,4,m
 
 print,orbitals,civector
 
 basis
 spd,o,cc-pvtz
 c;
 spd,c,cc-pvtz
 c;
 sp,h,cc-pvtz
 c;
 end
 
 geomtyp=xyz
 geometry={
 4
 ch2o
 o,0.0,0.0,-1.21301
 c,0.0,0.0,0.0
 h,0.0,0.95107,0.49619
 h,0.0,-0.95107,0.49619
 }
 
 
 int,
 pri,0;
 
 {hf
 wf,16,1,0;}
 optg

 Variables initialized (778), CPU time= 0.01 sec
 Commands  initialized (547), CPU time= 0.01 sec, 516 directives.
 Default parameters read. Elapsed time= 0.06 sec

 Checking input...
 Passed
1


                                         ***  PROGRAM SYSTEM MOLPRO  ***
                         Copyright, University College Cardiff Consultants Limited, 2008

                                    Version 2012.1 linked Apr  1 2014 15:33:03


 **********************************************************************************************************************************
 LABEL *   formaldehyde in cc-pvtz basis                                                 
 Linux-4.19.0-14-amd64/qciep(x86_64) 64 bit serial version                               DATE: 13-Feb-25          TIME: 11:24:22  
 **********************************************************************************************************************************

 SHA1:             960ce83de8be0427555cf121dea4debc26c720b5
 **********************************************************************************************************************************


 Variable memory set to    4000000 words,  buffer space   230000 words

 SETTING BASIS          =    USERDEF
 SETTING GEOMTYP        =    XYZ


 Using spherical harmonics

 Library entry O      S CC-PVTZ              selected for orbital group  1
 Library entry O      P CC-PVTZ              selected for orbital group  1
 Library entry O      D CC-PVTZ              selected for orbital group  1
 Library entry C      S CC-PVTZ              selected for orbital group  2
 Library entry C      P CC-PVTZ              selected for orbital group  2
 Library entry C      D CC-PVTZ              selected for orbital group  2
 Library entry H      S CC-PVTZ              selected for orbital group  3
 Library entry H      P CC-PVTZ              selected for orbital group  3

1PROGRAM * SEWARD (Integral evaluation for generally contracted gaussian basis sets)     Author: Roland Lindh, 1990

 Geometry written to block  1 of record 700


 Point group  C2v 



 ATOMIC COORDINATES

 NR  ATOM    CHARGE       X              Y              Z

   1  O       8.00    0.000000000    0.000000000   -2.292256695
   2  C       6.00    0.000000000    0.000000000    0.000000000
   3  H       1.00    0.000000000    1.797261832    0.937663209
   4  H       1.00    0.000000000   -1.797261832    0.937663209

 Bond lengths in Bohr (Angstrom)

 1-2  2.292256695  2-3  2.027156231  2-4  2.027156231
     ( 1.213010000)     ( 1.072724877)     ( 1.072724877)

 Bond angles

  1-2-3  117.55184391   1-2-4  117.55184391   3-2-4  124.89631217


 BASIS DATA

   Nr Sym  Nuc  Type         Exponents   Contraction coefficients

    1.1 A1   1  1s        15330.000000     0.000508   -0.000115    0.000000    0.000000
    2.1 A1                 2299.000000     0.003929   -0.000895    0.000000    0.000000
    3.1 A1                  522.400000     0.020243   -0.004636    0.000000    0.000000
    4.1 A1                  147.300000     0.079181   -0.018724    0.000000    0.000000
                             47.550000     0.230687   -0.058463    0.000000    0.000000
                             16.760000     0.433118   -0.136463    0.000000    0.000000
                              6.207000     0.350260   -0.175740    0.000000    0.000000
                              1.752000     0.042728    0.160934    1.000000    0.000000
                              0.688200    -0.008154    0.603418    0.000000    0.000000
                              0.238400     0.002381    0.378765    0.000000    1.000000
    5.1 A1   1  2pz          34.460000     0.015928    0.000000    0.000000
    6.1 A1                    7.749000     0.099740    0.000000    0.000000
    7.1 A1                    2.280000     0.310492    0.000000    0.000000
                              0.715600     0.491026    1.000000    0.000000
                              0.214000     0.336337    0.000000    1.000000
    8.1 A1   1  3d0           2.314000     1.000000
    9.1 A1   1  3d2+          2.314000     1.000000
   10.1 A1   1  3d0           0.645000     1.000000
   11.1 A1   1  3d2+          0.645000     1.000000
   12.1 A1   2  1s         8236.000000     0.000531   -0.000113    0.000000    0.000000
   13.1 A1                 1235.000000     0.004108   -0.000878    0.000000    0.000000
   14.1 A1                  280.800000     0.021087   -0.004540    0.000000    0.000000
   15.1 A1                   79.270000     0.081853   -0.018133    0.000000    0.000000
                             25.590000     0.234817   -0.055760    0.000000    0.000000
                              8.997000     0.434401   -0.126895    0.000000    0.000000
                              3.319000     0.346129   -0.170352    0.000000    0.000000
                              0.905900     0.039378    0.140382    1.000000    0.000000
                              0.364300    -0.008983    0.598684    0.000000    0.000000
                              0.128500     0.002385    0.395389    0.000000    1.000000
   16.1 A1   2  2pz          18.710000     0.014031    0.000000    0.000000
   17.1 A1                    4.133000     0.086866    0.000000    0.000000
   18.1 A1                    1.200000     0.290216    0.000000    0.000000
                              0.382700     0.501008    1.000000    0.000000
                              0.120900     0.343406    0.000000    1.000000
   19.1 A1   2  3d0           1.097000     1.000000
   20.1 A1   2  3d2+          1.097000     1.000000
   21.1 A1   2  3d0           0.318000     1.000000
   22.1 A1   2  3d2+          0.318000     1.000000
   23.1 A1   3  1s           33.870000     0.006068    0.000000    0.000000
   24.1 A1   4  1s            5.095000     0.045308    0.000000    0.000000
   25.1 A1                    1.159000     0.202822    0.000000    0.000000
                              0.325800     0.503903    1.000000    0.000000
                              0.102700     0.383421    0.000000    1.000000
   26.1 A1   3  2pz           1.407000     1.000000
             4  2pz    
   27.1 A1   3  2py           1.407000     1.000000
             4 -2py    
   28.1 A1   3  2pz           0.388000     1.000000
             4  2pz    
   29.1 A1   3  2py           0.388000     1.000000
             4 -2py    
    1.2 B1   1  2px          34.460000     0.015928    0.000000    0.000000
    2.2 B1                    7.749000     0.099740    0.000000    0.000000
    3.2 B1                    2.280000     0.310492    0.000000    0.000000
                              0.715600     0.491026    1.000000    0.000000
                              0.214000     0.336337    0.000000    1.000000
    4.2 B1   1  3d1+          2.314000     1.000000
    5.2 B1   1  3d1+          0.645000     1.000000
    6.2 B1   2  2px          18.710000     0.014031    0.000000    0.000000
    7.2 B1                    4.133000     0.086866    0.000000    0.000000
    8.2 B1                    1.200000     0.290216    0.000000    0.000000
                              0.382700     0.501008    1.000000    0.000000
                              0.120900     0.343406    0.000000    1.000000
    9.2 B1   2  3d1+          1.097000     1.000000
   10.2 B1   2  3d1+          0.318000     1.000000
   11.2 B1   3  2px           1.407000     1.000000
             4  2px    
   12.2 B1   3  2px           0.388000     1.000000
             4  2px    
    1.3 B2   1  2py          34.460000     0.015928    0.000000    0.000000
    2.3 B2                    7.749000     0.099740    0.000000    0.000000
    3.3 B2                    2.280000     0.310492    0.000000    0.000000
                              0.715600     0.491026    1.000000    0.000000
                              0.214000     0.336337    0.000000    1.000000
    4.3 B2   1  3d1-          2.314000     1.000000
    5.3 B2   1  3d1-          0.645000     1.000000
    6.3 B2   2  2py          18.710000     0.014031    0.000000    0.000000
    7.3 B2                    4.133000     0.086866    0.000000    0.000000
    8.3 B2                    1.200000     0.290216    0.000000    0.000000
                              0.382700     0.501008    1.000000    0.000000
                              0.120900     0.343406    0.000000    1.000000
    9.3 B2   2  3d1-          1.097000     1.000000
   10.3 B2   2  3d1-          0.318000     1.000000
   11.3 B2   3  1s           33.870000     0.006068    0.000000    0.000000
   12.3 B2   4 -1s            5.095000     0.045308    0.000000    0.000000
   13.3 B2                    1.159000     0.202822    0.000000    0.000000
                              0.325800     0.503903    1.000000    0.000000
                              0.102700     0.383421    0.000000    1.000000
   14.3 B2   3  2py           1.407000     1.000000
             4  2py    
   15.3 B2   3  2pz           1.407000     1.000000
             4 -2pz    
   16.3 B2   3  2py           0.388000     1.000000
             4  2py    
   17.3 B2   3  2pz           0.388000     1.000000
             4 -2pz    
    1.4 A2   1  3d2-          2.314000     1.000000
    2.4 A2   1  3d2-          0.645000     1.000000
    3.4 A2   2  3d2-          1.097000     1.000000
    4.4 A2   2  3d2-          0.318000     1.000000
    5.4 A2   3  2px           1.407000     1.000000
             4 -2px    
    6.4 A2   3  2px           0.388000     1.000000
             4 -2px    

 NUCLEAR CHARGE:                   16
 NUMBER OF PRIMITIVE AOS:          96
 NUMBER OF SYMMETRY AOS:           92
 NUMBER OF CONTRACTIONS:           64   (  29A1  +  12B1  +  17B2  +   6A2  )
 NUMBER OF CORE ORBITALS:           2   (   2A1  +   0B1  +   0B2  +   0A2  )
 NUMBER OF VALENCE ORBITALS:       10   (   5A1  +   2B1  +   3B2  +   0A2  )


 NUCLEAR REPULSION ENERGY   31.46655581


 Eigenvalues of metric

         1 0.258E-02 0.447E-02 0.546E-02 0.928E-02 0.192E-01 0.369E-01 0.522E-01 0.705E-01
         2 0.366E-01 0.480E-01 0.116E+00 0.168E+00 0.291E+00 0.460E+00 0.505E+00 0.865E+00
         3 0.376E-02 0.111E-01 0.204E-01 0.358E-01 0.562E-01 0.104E+00 0.121E+00 0.245E+00
         4 0.117E+00 0.432E+00 0.543E+00 0.836E+00 0.150E+01 0.249E+01


 Contracted 2-electron integrals neglected if value below      1.0D-11
 AO integral compression algorithm  1   Integral accuracy      1.0D-11

     4.194 MB (compressed) written to integral file ( 60.6%)


 NUMBER OF SORTED TWO-ELECTRON INTEGRALS:     595626.     BUFFER LENGTH:  32768
 NUMBER OF SEGMENTS:   1  SEGMENT LENGTH:     595626      RECORD LENGTH: 524288

 Memory used in sort:       1.15 MW

 SORT1 READ      829161. AND WROTE      566866. INTEGRALS IN      2 RECORDS. CPU TIME:     0.03 SEC, REAL TIME:     0.03 SEC
 SORT2 READ      566866. AND WROTE      595626. INTEGRALS IN     16 RECORDS. CPU TIME:     0.04 SEC, REAL TIME:     0.05 SEC

 FILE SIZES:   FILE 1:    11.9 MBYTE,  FILE 4:     8.4 MBYTE,   TOTAL:     20.3 MBYTE

 OPERATOR DM      FOR CENTER  0  COORDINATES:    0.000000    0.000000    0.000000


 **********************************************************************************************************************************
 DATASETS  * FILE   NREC   LENGTH (MB)   RECORD NAMES
              1      19       10.50       500      610      700      900      950      970     1000      129      960     1100   
                                          VAR    BASINP    GEOM    SYMINP    ZMAT    AOBASIS   BASIS     P2S    ABASIS      S 
                                         1400     1410     1200     1210     1080     1600     1650     1300     1700   
                                           T        V       H0       H01     AOSYM     SMH    MOLCAS    ERIS     OPER   

 PROGRAMS   *        TOTAL       INT
 CPU TIMES  *         0.41      0.29
 REAL TIME  *         0.50 SEC
 DISK USED  *        20.62 MB      
 **********************************************************************************************************************************

1PROGRAM * RHF-SCF (CLOSED SHELL)       Authors: W. Meyer, H.-J. Werner


 NUMBER OF ELECTRONS:       8+    8-    SPACE SYMMETRY=1    SPIN SYMMETRY: Singlet 
 CONVERGENCE THRESHOLDS:    1.00E-06 (Density)    1.00E-07 (Energy)
 MAX. NUMBER OF ITERATIONS:       60
 INTERPOLATION TYPE:            DIIS
 INTERPOLATION STEPS:              2 (START)      1 (STEP)
 LEVEL SHIFTS:                  0.00 (CLOSED)  0.00 (OPEN) 



 Orbital guess generated from atomic densities. Full valence occupancy:    7   2   3   0

 Molecular orbital dump at record        2100.2

 ITERATION    DDIFF          GRAD             ENERGY        2-EL.EN.            DIPOLE MOMENTS         DIIS   ORB.
    1      0.000D+00      0.000D+00      -113.85177787    145.691565    0.00000    0.00000    1.69938    0    start
    2      0.000D+00      0.193D-01      -113.87580852    143.549715    0.00000    0.00000    0.70652    1    diag
    3      0.325D-01      0.164D-01      -113.90482831    144.873127    0.00000    0.00000    1.12590    2    diag
    4      0.148D-01      0.127D-02      -113.90526908    144.725650    0.00000    0.00000    1.11474    3    diag
    5      0.207D-02      0.440D-03      -113.90532894    144.772781    0.00000    0.00000    1.11141    4    diag
    6      0.751D-03      0.168D-03      -113.90534397    144.762251    0.00000    0.00000    1.10759    5    diag
    7      0.438D-03      0.735D-04      -113.90534607    144.764127    0.00000    0.00000    1.10597    6    diag
    8      0.203D-03      0.129D-04      -113.90534612    144.764000    0.00000    0.00000    1.10560    7    diag
    9      0.363D-04      0.158D-05      -113.90534612    144.763948    0.00000    0.00000    1.10555    8    diag
   10      0.408D-05      0.323D-06      -113.90534612    144.763952    0.00000    0.00000    1.10555    9    orth
   11      0.884D-06      0.521D-07      -113.90534612    144.763951    0.00000    0.00000    1.10555    0    orth

 Final occupancy:   5   1   2   0

 !RHF STATE 1.1 Energy               -113.905346124849
 Nuclear energy                        31.46655581
 One-electron energy                 -217.75387762
 Two-electron energy                   72.38197568
 Virial quotient                       -1.00088848
 !RHF STATE 1.1 Dipole moment           0.00000000     0.00000000     1.10555267
 Dipole moment /Debye                   0.00000000     0.00000000     2.80985056

 ELECTRON ORBITALS
 =================


   Orb  Occ    Energy  Couls-En    Coefficients

                                   1 1s      1 1s      1 1s      1 1s      1 2pz     1 2pz     1 2pz     1 3d0     1 3d2+    1 3d0  
                                   1 3d2+    2 1s      2 1s      2 1s      2 1s      2 2pz     2 2pz     2 2pz     2 3d0     2 3d2+ 
                                   2 3d0     2 3d2+    3 1s      3 1s      3 1s      3 2pz     3 2py     3 2pz     3 2py  

   1.1   2   -20.5701  -55.6515  0.998972 -0.002286  0.001108  0.001047  0.004827 -0.004158 -0.001400  0.000173 -0.000126 -0.000544
                                -0.000197  0.000352  0.001427 -0.000145 -0.001987 -0.000657 -0.001568  0.000627  0.000394 -0.000019
                                 0.000880  0.000608  0.000320  0.001012 -0.000028  0.000037 -0.000060 -0.000423 -0.000159

   2.1   2   -11.3319  -33.7401 -0.000156  0.000859  0.000038  0.000143  0.000949 -0.000060 -0.000037  0.000062  0.000025 -0.000107
                                 0.000001  0.997967 -0.002793  0.002617  0.000487 -0.000693 -0.000379  0.000473  0.000496 -0.000339
                                -0.000013  0.000617  0.001857  0.001417 -0.001380  0.000018  0.000009 -0.000466 -0.000730

   3.1   2    -1.3985  -11.8132 -0.004755  0.815395 -0.009091 -0.070516  0.196368  0.007843 -0.053354  0.009269 -0.000427  0.016504
                                 0.001198 -0.020957  0.407846  0.000665 -0.114951 -0.283482  0.064824  0.093312  0.020245 -0.001668
                                 0.003853 -0.006578  0.116109 -0.059456 -0.046220 -0.003753 -0.003777  0.009531  0.009672

   4.1   2    -0.8722   -8.4510  0.000161 -0.387435 -0.001148 -0.044997  0.217576 -0.005336 -0.017832  0.003120 -0.000057  0.005154
                                 0.003074 -0.007420  0.694056 -0.004531 -0.131328  0.269093 -0.015902 -0.041688 -0.003730 -0.014254
                                -0.008547 -0.009661  0.650812 -0.132494 -0.223751 -0.006557 -0.017400  0.000743 -0.008593

   5.1   2    -0.6423   -9.5291 -0.001584 -0.285586 -0.004738 -0.091212  0.744461 -0.008338 -0.028448  0.012435  0.000504  0.027961
                                 0.001058 -0.003588  0.064171  0.007441 -0.120282 -0.593029  0.069608  0.183675  0.020062  0.007199
                                -0.001636  0.006117 -0.347300  0.054905  0.085173  0.000197  0.007906 -0.003081  0.011908

                                   1 2px     1 2px     1 2px     1 3d1+    1 3d1+    2 2px     2 2px     2 2px     2 3d1+    2 3d1+ 
                                   3 2px     3 2px  

   1.2   2    -0.5278   -9.1217  0.698651  0.012777  0.020454  0.009727  0.037633  0.498388 -0.007726 -0.028767 -0.022212 -0.033576
                                 0.005876  0.008809

                                   1 2py     1 2py     1 2py     1 3d1-    1 3d1-    2 2py     2 2py     2 2py     2 3d1-    2 3d1- 
                                   3 1s      3 1s      3 1s      3 2py     3 2pz     3 2py     3 2pz  

   1.3   2    -0.7089   -8.4129  0.448885  0.002796 -0.025356  0.007439  0.018706  0.643426 -0.021420 -0.134585  0.004462  0.012238
                                 0.699550 -0.144195 -0.204573 -0.014162 -0.010518  0.001861  0.004713

   2.3   2    -0.4433   -8.6524  0.822165  0.002058  0.066920  0.002911  0.019083 -0.289872  0.026493  0.095401 -0.035498 -0.034684
                                -0.591015  0.008054  0.043871  0.008174  0.005399  0.018472  0.007606

 HOMO      2.3    -0.443322 =     -12.0634eV
 LUMO      2.2     0.119444 =       3.2502eV
 LUMO-HOMO         0.562766 =      15.3136eV


 **********************************************************************************************************************************
 DATASETS  * FILE   NREC   LENGTH (MB)   RECORD NAMES
              1      19       10.50       500      610      700      900      950      970     1000      129      960     1100   
                                          VAR    BASINP    GEOM    SYMINP    ZMAT    AOBASIS   BASIS     P2S    ABASIS      S 
                                         1400     1410     1200     1210     1080     1600     1650     1300     1700   
                                           T        V       H0       H01     AOSYM     SMH    MOLCAS    ERIS     OPER   

              2       4        0.37       700     1000      520     2100   
                                         GEOM     BASIS   MCVARS     RHF  

 PROGRAMS   *        TOTAL        HF       INT
 CPU TIMES  *         0.51      0.10      0.29
 REAL TIME  *         0.61 SEC
 DISK USED  *        20.62 MB      
 **********************************************************************************************************************************


 PROGRAM * OPT (Geometry optimization)     Authors: F. Eckert and H.-J. Werner


 BFGS update of hessian

 *** Long output written to logfile /home/ewachmann/REPO/Masterarbeit_QChem/playground/first_steps/formaldehyde/formaldehyde_mp.log ***


 Geometry optimization using default procedure for command HF-SCF

 Geometry written to block  1 of record 700

 Making model hessian for cartesian coordinates

 Quadratic Steepest Descent - Minimum Search

 ITER.   ENERGY(OLD)    ENERGY(NEW)      DE          GRADMAX     GRADNORM    GRADRMS     STEPMAX     STEPLEN     STEPRMS   CPU-time
   1  -113.90534612  -113.90889205    -0.00354592  0.09418676  0.09593987  0.01598998  0.08401238  0.09393591  0.04696796      0.89
   2  -113.90889205  -113.90931733    -0.00042529  0.02822580  0.02945803  0.00490967  0.04935054  0.05488140  0.02744070      1.78
   3  -113.90931733  -113.90932153    -0.00000420  0.00357188  0.00369013  0.00061502  0.00304963  0.00361772  0.00180886      2.67
   4  -113.90932153  -113.90932157    -0.00000004  0.00017311  0.00019197  0.00003199  0.00032682  0.00039542  0.00019771      3.55

 END OF GEOMETRY OPTIMIZATION.

 Current geometry (xyz format, in Angstrom)

    4
 HF-SCF000/USERDEF  ENERGY=-113.90932157
 O          0.0000000000        0.0000000000       -1.2283976922
 C          0.0000000000        0.0000000000       -0.0490195464
 H          0.0000000000        0.9266578719        0.5283936193
 H          0.0000000000       -0.9266578719        0.5283936193

 **********************************************************************************************************************************

 Geometry written to block  1 of record 700


 **********************************************************************************************************************************
 DATASETS  * FILE   NREC   LENGTH (MB)   RECORD NAMES
              1      19       10.50       500      610      700      900      950      970     1000      129      960     1100   
                                          VAR    BASINP    GEOM    SYMINP    ZMAT    AOBASIS   BASIS     P2S    ABASIS      S 
                                         1400     1410     1200     1210     1080     1600     1650     1300     1700   
                                           T        V       H0       H01     AOSYM     SMH    MOLCAS    ERIS     OPER   

              2       4        0.37       700     1000      520     2100   
                                         GEOM     BASIS   MCVARS     RHF  

 PROGRAMS   *        TOTAL      OPTG        HF       INT
 CPU TIMES  *         4.06      3.54      0.10      0.29
 REAL TIME  *         4.43 SEC
 DISK USED  *        20.71 MB      
 **********************************************************************************************************************************

        OPTG(HF)        HF-SCF  
   -113.90932157   -113.90534612
 **********************************************************************************************************************************
 Variable memory released
